 Gaussian 09, Revision D.01,
 Gaussian 09:  ES64L-G09RevD.01 24-Apr-2013

 ----------------------------------------------------------------------
 #HF/6-31G* SCF=tight Test Pop=MK iop(6/33=2) iop(6/42=6) opt # iop(6/5
 0=1)
 ----------------------------------------------------------------------

 --------------------
 COX2-EPA charge resp
 --------------------
 Symbolic Z-matrix:
 Charge = -1 Multiplicity = 1

 SCF Done:  E(RHF) =  -923.802681772     A.U. after   14 cycles
 SCF Done:  E(RHF) =  -923.844691129     A.U. after   12 cycles
 SCF Done:  E(RHF) =  -923.875933161     A.U. after   13 cycles
 SCF Done:  E(RHF) =  -923.875703174     A.U. after   13 cycles
 SCF Done:  E(RHF) =  -923.873517461     A.U. after   13 cycles
 SCF Done:  E(RHF) =  -923.871629858     A.U. after   12 cycles
 SCF Done:  E(RHF) =  -923.876953379     A.U. after   10 cycles
 SCF Done:  E(RHF) =  -923.879251038     A.U. after   13 cycles
 SCF Done:  E(RHF) =  -923.881656222     A.U. after   13 cycles
 SCF Done:  E(RHF) =  -923.883528983     A.U. after   15 cycles
 SCF Done:  E(RHF) =  -923.900758718     A.U. after   12 cycles
 SCF Done:  E(RHF) =  -923.900768000     A.U. after   11 cycles
 SCF Done:  E(RHF) =  -923.900774801     A.U. after   11 cycles
 SCF Done:  E(RHF) =  -923.900779555     A.U. after   11 cycles
 SCF Done:  E(RHF) =  -923.900781830     A.U. after   10 cycles
 SCF Done:  E(RHF) =  -923.900782652     A.U. after   10 cycles
 SCF Done:  E(RHF) =  -923.900782933     A.U. after    8 cycles
 SCF Done:  E(RHF) =  -923.900783030     A.U. after    8 cycles
 SCF Done:  E(RHF) =  -923.900783075     A.U. after    7 cycles
 SCF Done:  E(RHF) =  -923.900783093     A.U. after    7 cycles
 Optimization completed.
    -- Stationary point found.

                         Standard orientation:
 ---------------------------------------------------------------------
 Center     Atomic      Atomic             Coordinates (Angstroms)
 Number     Number       Type             X           Y           Z
 ---------------------------------------------------------------------
      1          6           0        5.285441    2.798959    0.820868
      2          8           0        6.007096    1.941015    1.342562
      3          8           0        4.922053    3.889558    1.262954
      4          6           0        4.767242    2.483469   -0.614861
      5          6           0        5.035044    1.065563   -1.115872
      6          6           0        4.223489    0.003588   -0.359463
      7          6           0        4.591886   -1.396812   -0.768894
      8          6           0        3.857912   -2.324319   -1.363159
      9          6           0        2.412803   -2.225601   -1.797158
     10          6           0        1.553703   -3.262206   -1.112405
     11          6           0        0.444261   -3.091879   -0.413410
     12          6           0       -0.276166   -1.800974   -0.097855
     13          6           0       -0.263993   -1.513971    1.385308
     14          6           0       -1.275918   -1.535732    2.235738
     15          6           0       -2.727181   -1.853884    1.957847
     16          6           0       -3.630693   -0.705284    2.340196
     17          6           0       -4.519070   -0.068631    1.596391
     18          6           0       -4.872899   -0.304215    0.146262
     19          6           0       -4.549165    0.907096   -0.696952
     20          6           0       -5.371997    1.659335   -1.408610
     21          6           0       -6.863061    1.525575   -1.580573
     22          6           0       -7.614453    2.766424   -1.084813
     23          1           0        3.702705    2.710338   -0.649060
     24          1           0        5.240251    3.200650   -1.285163
     25          1           0        6.090683    0.850534   -0.990842
     26          1           0        4.810418    0.987885   -2.181687
     27          1           0        3.161887    0.187339   -0.499968
     28          1           0        4.440167    0.127667    0.694742
     29          1           0        5.615029   -1.660343   -0.544314
     30          1           0        4.322086   -3.277463   -1.573842
     31          1           0        2.031106   -1.229341   -1.633389
     32          1           0        2.360408   -2.403366   -2.872671
     33          1           0        1.916588   -4.274662   -1.212712
     34          1           0       -0.016975   -3.969396    0.014282
     35          1           0       -1.294046   -1.864094   -0.469832
     36          1           0        0.187901   -0.967966   -0.612436
     37          1           0        0.710832   -1.273356    1.777759
     38          1           0       -1.061103   -1.297684    3.266390
     39          1           0       -2.873113   -2.141482    0.927240
     40          1           0       -3.007590   -2.718755    2.560395
     41          1           0       -3.515609   -0.371795    3.360362
     42          1           0       -5.063527    0.741768    2.056132
     43          1           0       -5.926963   -0.551459    0.075781
     44          1           0       -4.330340   -1.157252   -0.246361
     45          1           0       -3.505223    1.177886   -0.691915
     46          1           0       -4.937877    2.492835   -1.940663
     47          1           0       -7.081856    1.382486   -2.637523
     48          1           0       -7.239927    0.647923   -1.069174
     49          1           0       -7.275407    3.660803   -1.599426
     50          1           0       -8.682773    2.669813   -1.255708
     51          1           0       -7.454037    2.916898   -0.022033
 ---------------------------------------------------------------------

 The electronic state is 1-A.
 Alpha  occ. eigenvalues --  -20.28001 -20.27360 -11.17642 -11.17317 -11.16982
 Alpha  occ. eigenvalues --  -11.16895 -11.16843 -11.16807 -11.16742 -11.16576
 Alpha  occ. eigenvalues --  -11.15492 -11.15440 -11.15228 -11.14912 -11.14672
 Alpha  occ. eigenvalues --  -11.14026 -11.12086 -11.12082 -11.11839 -11.08806
 Alpha  occ. eigenvalues --  -11.07481 -11.04635  -1.16507  -1.06090  -1.05140
 Alpha  occ. eigenvalues --   -1.03403  -1.01733  -0.99530  -0.97165  -0.95218
 Alpha  occ. eigenvalues --   -0.92128  -0.89857  -0.86969  -0.84271  -0.81632
 Alpha  occ. eigenvalues --   -0.79859  -0.77891  -0.68865  -0.67792  -0.67470
 Alpha  occ. eigenvalues --   -0.65966  -0.64434  -0.62190  -0.61429  -0.59666
 Alpha  occ. eigenvalues --   -0.57803  -0.55880  -0.55316  -0.53756  -0.53004
 Alpha  occ. eigenvalues --   -0.52231  -0.50806  -0.50700  -0.49966  -0.48681
 Alpha  occ. eigenvalues --   -0.47946  -0.47646  -0.46971  -0.46650  -0.45451
 Alpha  occ. eigenvalues --   -0.44882  -0.44122  -0.43501  -0.43141  -0.41938
 Alpha  occ. eigenvalues --   -0.41259  -0.41102  -0.40794  -0.39658  -0.39300
 Alpha  occ. eigenvalues --   -0.36796  -0.36302  -0.34524  -0.32559  -0.31050
 Alpha  occ. eigenvalues --   -0.30182  -0.28604  -0.28237  -0.26476  -0.23894
 Alpha  occ. eigenvalues --   -0.19191  -0.17762  -0.17685
 Alpha virt. eigenvalues --    0.22088   0.24293   0.26773   0.28096   0.29106
 Alpha virt. eigenvalues --    0.29856   0.31034   0.31321   0.31823   0.32510
 Alpha virt. eigenvalues --    0.33234   0.34397   0.35061   0.36355   0.36448

 Mulliken charges:
               1
     1  C    0.750411
     2  O   -0.758129
     3  O   -0.757031
     4  C   -0.412046
     5  C   -0.278377
     6  C   -0.351893
     7  C   -0.139371
     8  C   -0.198172
     9  C   -0.374778
    10  C   -0.144106
    11  C   -0.176078
    12  C   -0.393003
    13  C   -0.156149
    14  C   -0.175900
    15  C   -0.381978
    16  C   -0.152362
    17  C   -0.171748
    18  C   -0.390122
    19  C   -0.165134
    20  C   -0.172241
    21  C   -0.341332
    22  C   -0.475489
    23  H    0.126462
    24  H    0.131380
    25  H    0.163674
    26  H    0.104241
    27  H    0.130232
    28  H    0.223544
    29  H    0.169876
    30  H    0.143483
    31  H    0.189801
    32  H    0.159256
    33  H    0.159963
    34  H    0.161793
    35  H    0.163265
    36  H    0.193105
    37  H    0.204871
    38  H    0.172637
    39  H    0.178406
    40  H    0.170208
    41  H    0.173093
    42  H    0.173423
    43  H    0.171698
    44  H    0.179772
    45  H    0.194492
    46  H    0.173201
    47  H    0.162046
    48  H    0.165449
    49  H    0.157780
    50  H    0.152925
    51  H    0.164948
 Sum of Mulliken charges =  -1.00000

 Dipole moment (field-independent basis, Debye):
    X=            -24.3387    Y=            -12.0695    Z=             -5.7189  Tot=             27.7624
 Quadrupole moment (field-independent basis, Debye-Ang):
   XX=           -276.3416   YY=           -188.2491   ZZ=           -150.0770
   XY=            -66.1257   XZ=            -32.1203   YZ=            -20.3066

 ESP charges:
               1
     1  C    0.828292
     2  O   -0.798331
     3  O   -0.824297
     4  C   -0.176086
     5  C   -0.045350
     6  C    0.117116
     7  C   -0.273271
     8  C   -0.293465
     9  C    0.343983
    10  C   -0.224970
    11  C   -0.350806
    12  C    0.148420
    13  C   -0.139129
    14  C   -0.365031
    15  C    0.417130
    16  C   -0.343522
    17  C   -0.291783
    18  C    0.248667
    19  C   -0.216977
    20  C   -0.394848
    21  C    0.369333
    22  C   -0.217671
    23  H   -0.004182
    24  H    0.034088
    25  H    0.037205
    26  H   -0.032483
    27  H    0.036967
    28  H    0.044549
    29  H    0.148596
    30  H    0.102904
    31  H    0.001333
    32  H   -0.058999
    33  H    0.125292
    34  H    0.143435
    35  H    0.045295
    36  H    0.013965
    37  H    0.130235
    38  H    0.143009
    39  H   -0.020667
    40  H   -0.053981
    41  H    0.158325
    42  H    0.157877
    43  H    0.002896
    44  H   -0.013509
    45  H    0.149157
    46  H    0.161268
    47  H   -0.055301
    48  H   -0.045344
    49  H    0.050270
    50  H    0.020236
    51  H    0.060159
 Sum of ESP charges =  -1.00000

 Normal termination of Gaussian 09 at Thu Feb 15 13:11:31 2018.
