 Gaussian 09, Revision D.01,
 Gaussian 09:  AS64L-G09RevD.01 24-Apr-2013

 ------------------------------------------------
 # hf/6-31g* geom=connectivity iop(6/50=1) pop=mk
 ------------------------------------------------

 ---------------
 SAS with out OH
 ---------------
 Symbolic Z-matrix:
 Charge =  0 Multiplicity = 1

                         Standard orientation:
 ---------------------------------------------------------------------
 Center     Atomic      Atomic             Coordinates (Angstroms)
 Number     Number       Type             X           Y           Z
 ---------------------------------------------------------------------
      1          7           0       -1.396415    0.738895   -1.067727
      2          6           0       -0.349437   -0.282596   -0.957904
      3          1           0       -0.039752   -0.553701   -1.957082
      4          6           0        0.860662    0.310469   -0.230202
      5          1           0        1.281734    1.095118   -0.854957
      6          1           0        0.550907    0.747795    0.716018
      7          8           0        1.845235   -0.663259    0.037904
      8          6           0        3.104137   -0.034303    0.070210
      9          6           0       -0.836940   -1.564678   -0.288058
     10          8           0       -0.866797   -2.641937   -0.937820
     11          8           0        4.090700   -0.525371   -0.609019
     12          6           0        3.305312    1.225951    0.904780
     13          1           0        4.335752    1.566248    0.805983
     14          1           0        3.093514    1.005610    1.951106
     15          1           0        2.629460    2.005749    0.552785
     16          1           0       -2.292760    0.296216   -1.092235
     17          6           0       -1.855934    1.891013   -0.278824
     18          8           0       -2.880914    2.531022   -0.630073
     19          6           0       -0.894223    2.075773    0.909693
     20          1           0       -0.738429    1.133556    1.392245
     21          1           0        0.041866    2.454220    0.555552
     22          1           0       -1.317903    2.767915    1.607070
     23          7           0       -1.271534   -1.540936    1.116030
     24          1           0       -0.802950   -2.264904    1.622289
     25          6           0       -2.723979   -1.757275    1.183129
     26          1           0       -2.920943   -2.761600    1.495277
     27          1           0       -3.154190   -1.074534    1.885754
     28          1           0       -3.154024   -1.593163    0.217195
 ---------------------------------------------------------------------

 SCF Done:  E(RHF) =  -719.318504195     A.U. after   17 cycles

 The electronic state is 1-A.
 Alpha  occ. eigenvalues --  -20.63095 -20.58634 -20.57636 -20.57408 -15.60347
 Alpha  occ. eigenvalues --  -15.59127 -11.42044 -11.40497 -11.39033 -11.32140
 Alpha  occ. eigenvalues --  -11.31816 -11.27384 -11.27236 -11.25815  -1.45533
 Alpha  occ. eigenvalues --   -1.39513  -1.38505  -1.33761  -1.25083  -1.22397
 Alpha  occ. eigenvalues --   -1.06518  -1.04680  -1.03858  -0.95747  -0.92078
 Alpha  occ. eigenvalues --   -0.82758  -0.80009  -0.78635  -0.72921  -0.71997
 Alpha  occ. eigenvalues --   -0.69696  -0.68458  -0.68021  -0.65516  -0.65475
 Alpha  occ. eigenvalues --   -0.63661  -0.63547  -0.62312  -0.61523  -0.59803
 Alpha  occ. eigenvalues --   -0.59497  -0.59225  -0.57495  -0.56888  -0.55751
 Alpha  occ. eigenvalues --   -0.52579  -0.50573  -0.49341  -0.47485  -0.46027
 Alpha  occ. eigenvalues --   -0.45445  -0.44572  -0.42051  -0.41022
 Alpha virt. eigenvalues --    0.10479   0.12706   0.14579   0.18062   0.20335
 Alpha virt. eigenvalues --    0.22100   0.23689   0.25231   0.26256   0.27605
 Alpha virt. eigenvalues --    0.28116   0.28481   0.30559   0.31185   0.31509

 Mulliken charges:
               1
     1  N   -0.823259
     2  C   -0.001233
     3  H    0.260104
     4  C   -0.033847
     5  H    0.191280
     6  H    0.193112
     7  O   -0.630191
     8  C    0.765088
     9  C    0.637506
    10  O   -0.517179
    11  O   -0.551880
    12  C   -0.581375
    13  H    0.242471
    14  H    0.211392
    15  H    0.190615
    16  H    0.382988
    17  C    0.734082
    18  O   -0.571035
    19  C   -0.644177
    20  H    0.244965
    21  H    0.205421
    22  H    0.224249
    23  N   -0.762452
    24  H    0.386094
    25  C   -0.304514
    26  H    0.188877
    27  H    0.185986
    28  H    0.176911
 Sum of Mulliken charges =   0.00000

 Dipole moment (field-independent basis, Debye):
    X=             -0.5075    Y=              1.9345    Z=              5.1347  Tot=              5.5105
 Quadrupole moment (field-independent basis, Debye-Ang):
   XX=           -101.7648   YY=            -94.3593   ZZ=            -83.6916
   XY=             21.6073   XZ=              1.3627   YZ=             -2.6609

 ESP charges:
               1
     1  N   -0.833345
     2  C    0.182324
     3  H    0.072603
     4  C    0.093668
     5  H    0.125430
     6  H    0.036723
     7  O   -0.520641
     8  C    0.824700
     9  C    0.704915
    10  O   -0.532718
    11  O   -0.552328
    12  C   -0.503717
    13  H    0.161443
    14  H    0.170717
    15  H    0.123154
    16  H    0.365953
    17  C    0.790790
    18  O   -0.573071
    19  C   -0.310245
    20  H    0.101910
    21  H    0.113191
    22  H    0.075362
    23  N   -0.670661
    24  H    0.381640
    25  C   -0.105890
    26  H    0.098996
    27  H    0.084120
    28  H    0.094978
 Sum of ESP charges =   0.00000

 Normal termination of Gaussian 09 at Thu May 11 16:54:01 2017.
